 TITLE="FRONT STEP"
 VARIABLES=X,RHO,u,v,w,Bx,By,Bz,p
 ZONE I=         401
   0.0000000000000000                            NaN                       NaN                       NaN                       NaN                       NaN                       NaN                       NaN                       NaN
   2.4999999441206455E-003                       NaN                       NaN                       NaN                       NaN                       NaN                       NaN                       NaN                       NaN
   4.9999998882412910E-003                       NaN                       NaN                       NaN                       NaN                       NaN                       NaN                       NaN                       NaN
   7.4999998323619366E-003                       NaN                       NaN                       NaN                       NaN                       NaN                       NaN                       NaN                       NaN
   9.9999997764825821E-003                       NaN                       NaN                       NaN                       NaN                       NaN                       NaN                       NaN                       NaN
   1.2499999720603228E-002                       NaN                       NaN                       NaN                       NaN                       NaN                       NaN                       NaN                       NaN
   1.4999999664723873E-002                       NaN                       NaN                       NaN                       NaN                       NaN                       NaN                       NaN                       NaN
   1.7499999608844519E-002                       NaN                       NaN                       NaN                       NaN                       NaN                       NaN                       NaN                       NaN
   1.9999999552965164E-002                       NaN                       NaN                       NaN                       NaN                       NaN                       NaN                       NaN                       NaN
   2.2499999497085810E-002                       NaN                       NaN                       NaN                       NaN                       NaN                       NaN                       NaN                       NaN
   2.4999999441206455E-002                       NaN                       NaN                       NaN                       NaN                       NaN                       NaN                       NaN                       NaN
   2.7499999385327101E-002                       NaN                       NaN                       NaN                       NaN                       NaN                       NaN                       NaN                       NaN
   2.9999999329447746E-002                       NaN                       NaN                       NaN                       NaN                       NaN                       NaN                       NaN                       NaN
   3.2499999273568392E-002                       NaN                       NaN                       NaN                       NaN                       NaN                       NaN                       NaN                       NaN
   3.4999999217689037E-002                       NaN                       NaN                       NaN                       NaN                       NaN                       NaN                       NaN                       NaN
   3.7499999161809683E-002                       NaN                       NaN                       NaN                       NaN                       NaN                       NaN                       NaN                       NaN
   3.9999999105930328E-002                       NaN                       NaN                       NaN                       NaN                       NaN                       NaN                       NaN                       NaN
   4.2499999050050974E-002                       NaN                       NaN                       NaN                       NaN                       NaN                       NaN                       NaN                       NaN
   4.4999998994171619E-002                       NaN                       NaN                       NaN                       NaN                       NaN                       NaN                       NaN                       NaN
   4.7499998938292265E-002                       NaN                       NaN                       NaN                       NaN                       NaN                       NaN                       NaN                       NaN
   4.9999998882412910E-002                       NaN                       NaN                       NaN                       NaN                       NaN                       NaN                       NaN                       NaN
   5.2499998826533556E-002                       NaN                       NaN                       NaN                       NaN                       NaN                       NaN                       NaN                       NaN
   5.4999998770654202E-002                       NaN                       NaN                       NaN                       NaN                       NaN                       NaN                       NaN                       NaN
   5.7499998714774847E-002                       NaN                       NaN                       NaN                       NaN                       NaN                       NaN                       NaN                       NaN
   5.9999998658895493E-002                       NaN                       NaN                       NaN                       NaN                       NaN                       NaN                       NaN                       NaN
   6.2499998603016138E-002                       NaN                       NaN                       NaN                       NaN                       NaN                       NaN                       NaN                       NaN
   6.4999998547136784E-002                       NaN                       NaN                       NaN                       NaN                       NaN                       NaN                       NaN                       NaN
   6.7499998491257429E-002                       NaN                       NaN                       NaN                       NaN                       NaN                       NaN                       NaN                       NaN
   6.9999998435378075E-002                       NaN                       NaN                       NaN                       NaN                       NaN                       NaN                       NaN                       NaN
   7.2499998379498720E-002                       NaN                       NaN                       NaN                       NaN                       NaN                       NaN                       NaN                       NaN
   7.4999998323619366E-002                       NaN                       NaN                       NaN                       NaN                       NaN                       NaN                       NaN                       NaN
   7.7499998267740011E-002                       NaN                       NaN                       NaN                       NaN                       NaN                       NaN                       NaN                       NaN
   7.9999998211860657E-002                       NaN                       NaN                       NaN                       NaN                       NaN                       NaN                       NaN                       NaN
   8.2499998155981302E-002                       NaN                       NaN                       NaN                       NaN                       NaN                       NaN                       NaN                       NaN
   8.4999998100101948E-002                       NaN                       NaN                       NaN                       NaN                       NaN                       NaN                       NaN                       NaN
   8.7499998044222593E-002                       NaN                       NaN                       NaN                       NaN                       NaN                       NaN                       NaN                       NaN
   8.9999997988343239E-002                       NaN                       NaN                       NaN                       NaN                       NaN                       NaN                       NaN                       NaN
   9.2499997932463884E-002                       NaN                       NaN                       NaN                       NaN                       NaN                       NaN                       NaN                       NaN
   9.4999997876584530E-002                       NaN                       NaN                       NaN                       NaN                       NaN                       NaN                       NaN                       NaN
   9.7499997820705175E-002                       NaN                       NaN                       NaN                       NaN                       NaN                       NaN                       NaN                       NaN
   9.9999997764825821E-002                       NaN                       NaN                       NaN                       NaN                       NaN                       NaN                       NaN                       NaN
  0.10249999770894647                            NaN                       NaN                       NaN                       NaN                       NaN                       NaN                       NaN                       NaN
  0.10499999765306711                            NaN                       NaN                       NaN                       NaN                       NaN                       NaN                       NaN                       NaN
  0.10749999759718776                            NaN                       NaN                       NaN                       NaN                       NaN                       NaN                       NaN                       NaN
  0.10999999754130840                            NaN                       NaN                       NaN                       NaN                       NaN                       NaN                       NaN                       NaN
  0.11249999748542905                            NaN                       NaN                       NaN                       NaN                       NaN                       NaN                       NaN                       NaN
  0.11499999742954969                            NaN                       NaN                       NaN                       NaN                       NaN                       NaN                       NaN                       NaN
  0.11749999737367034                            NaN                       NaN                       NaN                       NaN                       NaN                       NaN                       NaN                       NaN
  0.11999999731779099                            NaN                       NaN                       NaN                       NaN                       NaN                       NaN                       NaN                       NaN
  0.12249999726191163                            NaN                       NaN                       NaN                       NaN                       NaN                       NaN                       NaN                       NaN
  0.12499999720603228                            NaN                       NaN                       NaN                       NaN                       NaN                       NaN                       NaN                       NaN
  0.12749999715015292                            NaN                       NaN                       NaN                       NaN                       NaN                       NaN                       NaN                       NaN
  0.12999999709427357                            NaN                       NaN                       NaN                       NaN                       NaN                       NaN                       NaN                       NaN
  0.13249999703839421                            NaN                       NaN                       NaN                       NaN                       NaN                       NaN                       NaN                       NaN
  0.13499999698251486                            NaN                       NaN                       NaN                       NaN                       NaN                       NaN                       NaN                       NaN
  0.13749999692663550                            NaN                       NaN                       NaN                       NaN                       NaN                       NaN                       NaN                       NaN
  0.13999999687075615                            NaN                       NaN                       NaN                       NaN                       NaN                       NaN                       NaN                       NaN
  0.14249999681487679                            NaN                       NaN                       NaN                       NaN                       NaN                       NaN                       NaN                       NaN
  0.14499999675899744                            NaN                       NaN                       NaN                       NaN                       NaN                       NaN                       NaN                       NaN
  0.14749999670311809                            NaN                       NaN                       NaN                       NaN                       NaN                       NaN                       NaN                       NaN
  0.14999999664723873                            NaN                       NaN                       NaN                       NaN                       NaN                       NaN                       NaN                       NaN
  0.15249999659135938                            NaN                       NaN                       NaN                       NaN                       NaN                       NaN                       NaN                       NaN
  0.15499999653548002                            NaN                       NaN                       NaN                       NaN                       NaN                       NaN                       NaN                       NaN
  0.15749999647960067                            NaN                       NaN                       NaN                       NaN                       NaN                       NaN                       NaN                       NaN
  0.15999999642372131                            NaN                       NaN                       NaN                       NaN                       NaN                       NaN                       NaN                       NaN
  0.16249999636784196                            NaN                       NaN                       NaN                       NaN                       NaN                       NaN                       NaN                       NaN
  0.16499999631196260                            NaN                       NaN                       NaN                       NaN                       NaN                       NaN                       NaN                       NaN
  0.16749999625608325                            NaN                       NaN                       NaN                       NaN                       NaN                       NaN                       NaN                       NaN
  0.16999999620020390                            NaN                       NaN                       NaN                       NaN                       NaN                       NaN                       NaN                       NaN
  0.17249999614432454                            NaN                       NaN                       NaN                       NaN                       NaN                       NaN                       NaN                       NaN
  0.17499999608844519                            NaN                       NaN                       NaN                       NaN                       NaN                       NaN                       NaN                       NaN
  0.17749999603256583                            NaN                       NaN                       NaN                       NaN                       NaN                       NaN                       NaN                       NaN
  0.17999999597668648                            NaN                       NaN                       NaN                       NaN                       NaN                       NaN                       NaN                       NaN
  0.18249999592080712                            NaN                       NaN                       NaN                       NaN                       NaN                       NaN                       NaN                       NaN
  0.18499999586492777                            NaN                       NaN                       NaN                       NaN                       NaN                       NaN                       NaN                       NaN
  0.18749999580904841                            NaN                       NaN                       NaN                       NaN                       NaN                       NaN                       NaN                       NaN
  0.18999999575316906                            NaN                       NaN                       NaN                       NaN                       NaN                       NaN                       NaN                       NaN
  0.19249999569728971                            NaN                       NaN                       NaN                       NaN                       NaN                       NaN                       NaN                       NaN
  0.19499999564141035                            NaN                       NaN                       NaN                       NaN                       NaN                       NaN                       NaN                       NaN
  0.19749999558553100                            NaN                       NaN                       NaN                       NaN                       NaN                       NaN                       NaN                       NaN
  0.19999999552965164                            NaN                       NaN                       NaN                       NaN                       NaN                       NaN                       NaN                       NaN
  0.20249999547377229                            NaN                       NaN                       NaN                       NaN                       NaN                       NaN                       NaN                       NaN
  0.20499999541789293                            NaN                       NaN                       NaN                       NaN                       NaN                       NaN                       NaN                       NaN
  0.20749999536201358                            NaN                       NaN                       NaN                       NaN                       NaN                       NaN                       NaN                       NaN
  0.20999999530613422                            NaN                       NaN                       NaN                       NaN                       NaN                       NaN                       NaN                       NaN
  0.21249999525025487                            NaN                       NaN                       NaN                       NaN                       NaN                       NaN                       NaN                       NaN
  0.21499999519437551                            NaN                       NaN                       NaN                       NaN                       NaN                       NaN                       NaN                       NaN
  0.21749999513849616                            NaN                       NaN                       NaN                       NaN                       NaN                       NaN                       NaN                       NaN
  0.21999999508261681                            NaN                       NaN                       NaN                       NaN                       NaN                       NaN                       NaN                       NaN
  0.22249999502673745                            NaN                       NaN                       NaN                       NaN                       NaN                       NaN                       NaN                       NaN
  0.22499999497085810                            NaN                       NaN                       NaN                       NaN                       NaN                       NaN                       NaN                       NaN
  0.22749999491497874                            NaN                       NaN                       NaN                       NaN                       NaN                       NaN                       NaN                       NaN
  0.22999999485909939                            NaN                       NaN                       NaN                       NaN                       NaN                       NaN                       NaN                       NaN
  0.23249999480322003                            NaN                       NaN                       NaN                       NaN                       NaN                       NaN                       NaN                       NaN
  0.23499999474734068                            NaN                       NaN                       NaN                       NaN                       NaN                       NaN                       NaN                       NaN
  0.23749999469146132                            NaN                       NaN                       NaN                       NaN                       NaN                       NaN                       NaN                       NaN
  0.23999999463558197                            NaN                       NaN                       NaN                       NaN                       NaN                       NaN                       NaN                       NaN
  0.24249999457970262                            NaN                       NaN                       NaN                       NaN                       NaN                       NaN                       NaN                       NaN
  0.24499999452382326                            NaN                       NaN                       NaN                       NaN                       NaN                       NaN                       NaN                       NaN
  0.24749999446794391                            NaN                       NaN                       NaN                       NaN                       NaN                       NaN                       NaN                       NaN
  0.24999999441206455                            NaN                       NaN                       NaN                       NaN                       NaN                       NaN                       NaN                       NaN
  0.25249999435618520                            NaN                       NaN                       NaN                       NaN                       NaN                       NaN                       NaN                       NaN
  0.25499999430030584                            NaN                       NaN                       NaN                       NaN                       NaN                       NaN                       NaN                       NaN
  0.25749999424442649                            NaN                       NaN                       NaN                       NaN                       NaN                       NaN                       NaN                       NaN
  0.25999999418854713                            NaN                       NaN                       NaN                       NaN                       NaN                       NaN                       NaN                       NaN
  0.26249999413266778                            NaN                       NaN                       NaN                       NaN                       NaN                       NaN                       NaN                       NaN
  0.26499999407678843                            NaN                       NaN                       NaN                       NaN                       NaN                       NaN                       NaN                       NaN
  0.26749999402090907                            NaN                       NaN                       NaN                       NaN                       NaN                       NaN                       NaN                       NaN
  0.26999999396502972                            NaN                       NaN                       NaN                       NaN                       NaN                       NaN                       NaN                       NaN
  0.27249999390915036                            NaN                       NaN                       NaN                       NaN                       NaN                       NaN                       NaN                       NaN
  0.27499999385327101                            NaN                       NaN                       NaN                       NaN                       NaN                       NaN                       NaN                       NaN
  0.27749999379739165                            NaN                       NaN                       NaN                       NaN                       NaN                       NaN                       NaN                       NaN
  0.27999999374151230                            NaN                       NaN                       NaN                       NaN                       NaN                       NaN                       NaN                       NaN
  0.28249999368563294                            NaN                       NaN                       NaN                       NaN                       NaN                       NaN                       NaN                       NaN
  0.28499999362975359                            NaN                       NaN                       NaN                       NaN                       NaN                       NaN                       NaN                       NaN
  0.28749999357387424                            NaN                       NaN                       NaN                       NaN                       NaN                       NaN                       NaN                       NaN
  0.28999999351799488                            NaN                       NaN                       NaN                       NaN                       NaN                       NaN                       NaN                       NaN
  0.29249999346211553                            NaN                       NaN                       NaN                       NaN                       NaN                       NaN                       NaN                       NaN
  0.29499999340623617                            NaN                       NaN                       NaN                       NaN                       NaN                       NaN                       NaN                       NaN
  0.29749999335035682                            NaN                       NaN                       NaN                       NaN                       NaN                       NaN                       NaN                       NaN
  0.29999999329447746                            NaN                       NaN                       NaN                       NaN                       NaN                       NaN                       NaN                       NaN
  0.30249999323859811                            NaN                       NaN                       NaN                       NaN                       NaN                       NaN                       NaN                       NaN
  0.30499999318271875                            NaN                       NaN                       NaN                       NaN                       NaN                       NaN                       NaN                       NaN
  0.30749999312683940                            NaN                       NaN                       NaN                       NaN                       NaN                       NaN                       NaN                       NaN
  0.30999999307096004                            NaN                       NaN                       NaN                       NaN                       NaN                       NaN                       NaN                       NaN
  0.31249999301508069                            NaN                       NaN                       NaN                       NaN                       NaN                       NaN                       NaN                       NaN
  0.31499999295920134                            NaN                       NaN                       NaN                       NaN                       NaN                       NaN                       NaN                       NaN